-- Export from OpenFlow
-- Grid: _BENCHMARK_MCHAVES_Cadu1_StratGrid
-- Done by ESilva on Tue Nov 11 10:03:18 BRT 2025
-- Continuous NoValue: -77777.0
-- Discrete NoValue: 0
MAPUNITS
METRES /

MAPAXES
 808298.00  8922962.0  808298.00  8923962.0  809298.00  8923962.0 /

GRIDUNIT
METRES /

SPECGRID
27 24 21 1 F /

COORD
 0.0000000  0.0000000 -0.0000000  0.0000000  0.0000000  10000.000 
 300.00000  0.0000000 -0.0000000  300.00000  0.0000000  10000.000 
 600.00000  0.0000000 -0.0000000  600.00000  0.0000000  10000.000 
 900.00000  0.0000000 -0.0000000  900.00000  0.0000000  10000.000 
 1200.0000  0.0000000 -0.0000000  1200.0000  0.0000000  10000.000 
 1500.0000  0.0000000 -0.0000000  1500.0000  0.0000000  10000.000 
 1800.0000  0.0000000 -0.0000000  1800.0000  0.0000000  10000.000 
 2100.0000  0.0000000 -0.0000000  2100.0000  0.0000000  10000.000 
 2400.0000  0.0000000 -0.0000000  2400.0000  0.0000000  10000.000 
 2700.0000  0.0000000 -0.0000000  2700.0000  0.0000000  10000.000 
 3000.0000  0.0000000 -0.0000000  3000.0000  0.0000000  10000.000 
 3300.0000  0.0000000 -0.0000000  3300.0000  0.0000000  10000.000 
 3600.0000  0.0000000 -0.0000000  3600.0000  0.0000000  10000.000 
 3900.0000  0.0000000 -0.0000000  3900.0000  0.0000000  10000.000 
 4200.0000  0.0000000 -0.0000000  4200.0000  0.0000000  10000.000 
 4500.0000  0.0000000 -0.0000000  4500.0000  0.0000000  10000.000 
 4800.0000  0.0000000 -0.0000000  4800.0000  0.0000000  10000.000 
 5100.0000  0.0000000 -0.0000000  5100.0000  0.0000000  10000.000 
 5400.0000  0.0000000 -0.0000000  5400.0000  0.0000000  10000.000 
 5700.0000  0.0000000 -0.0000000  5700.0000  0.0000000  10000.000 
 6000.0000  0.0000000 -0.0000000  6000.0000  0.0000000  10000.000 
 6300.0000  0.0000000 -0.0000000  6300.0000  0.0000000  10000.000 
 6600.0000  0.0000000 -0.0000000  6600.0000  0.0000000  10000.000 
 6900.0000  0.0000000 -0.0000000  6900.0000  0.0000000  10000.000 
 7200.0000  0.0000000 -0.0000000  7200.0000  0.0000000  10000.000 
 7500.0000  0.0000000 -0.0000000  7500.0000  0.0000000  10000.000 
 7800.0000  0.0000000 -0.0000000  7800.0000  0.0000000  10000.000 
 8100.0000  0.0000000 -0.0000000  8100.0000  0.0000000  10000.000 
 0.0000000  300.00000 -0.0000000  0.0000000  300.00000  10000.000 
 300.00000  300.00000 -0.0000000  300.00000  300.00000  10000.000 
 600.00000  300.00000 -0.0000000  600.00000  300.00000  10000.000 
 900.00000  300.00000 -0.0000000  900.00000  300.00000  10000.000 
 1200.0000  300.00000 -0.0000000  1200.0000  300.00000  10000.000 
 1500.0000  300.00000 -0.0000000  1500.0000  300.00000  10000.000 
 1800.0000  300.00000 -0.0000000  1800.0000  300.00000  10000.000 
 2100.0000  300.00000 -0.0000000  2100.0000  300.00000  10000.000 
 2400.0000  300.00000 -0.0000000  2400.0000  300.00000  10000.000 
 2700.0000  300.00000 -0.0000000  2700.0000  300.00000  10000.000 
 3000.0000  300.00000 -0.0000000  3000.0000  300.00000  10000.000 
 3300.0000  300.00000 -0.0000000  3300.0000  300.00000  10000.000 
 3600.0000  300.00000 -0.0000000  3600.0000  300.00000  10000.000 
 3900.0000  300.00000 -0.0000000  3900.0000  300.00000  10000.000 
 4200.0000  300.00000 -0.0000000  4200.0000  300.00000  10000.000 
 4500.0000  300.00000 -0.0000000  4500.0000  300.00000  10000.000 
 4800.0000  300.00000 -0.0000000  4800.0000  300.00000  10000.000 
 5100.0000  300.00000 -0.0000000  5100.0000  300.00000  10000.000 
 5400.0000  300.00000 -0.0000000  5400.0000  300.00000  10000.000 
 5700.0000  300.00000 -0.0000000  5700.0000  300.00000  10000.000 
 6000.0000  300.00000 -0.0000000  6000.0000  300.00000  10000.000 
 6300.0000  300.00000 -0.0000000  6300.0000  300.00000  10000.000 
 6600.0000  300.00000 -0.0000000  6600.0000  300.00000  10000.000 
 6900.0000  300.00000 -0.0000000  6900.0000  300.00000  10000.000 
 7200.0000  300.00000 -0.0000000  7200.0000  300.00000  10000.000 
 7500.0000  300.00000 -0.0000000  7500.0000  300.00000  10000.000 
 7800.0000  300.00000 -0.0000000  7800.0000  300.00000  10000.000 
 8100.0000  300.00000 -0.0000000  8100.0000  300.00000  10000.000 
 0.0000000  600.00000 -0.0000000  0.0000000  600.00000  10000.000 
 300.00000  600.00000 -0.0000000  300.00000  600.00000  10000.000 
 600.00000  600.00000 -0.0000000  600.00000  600.00000  10000.000 
 900.00000  600.00000 -0.0000000  900.00000  600.00000  10000.000 
 1200.0000  600.00000 -0.0000000  1200.0000  600.00000  10000.000 
 1500.0000  600.00000 -0.0000000  1500.0000  600.00000  10000.000 
 1800.0000  600.00000 -0.0000000  1800.0000  600.00000  10000.000 
 2100.0000  600.00000 -0.0000000  2100.0000  600.00000  10000.000 
 2400.0000  600.00000 -0.0000000  2400.0000  600.00000  10000.000 
 2700.0000  600.00000 -0.0000000  2700.0000  600.00000  10000.000 
 3000.0000  600.00000 -0.0000000  3000.0000  600.00000  10000.000 
 3300.0000  600.00000 -0.0000000  3300.0000  600.00000  10000.000 
 3600.0000  600.00000 -0.0000000  3600.0000  600.00000  10000.000 
 3900.0000  600.00000 -0.0000000  3900.0000  600.00000  10000.000 
 4200.0000  600.00000 -0.0000000  4200.0000  600.00000  10000.000 
 4500.0000  600.00000 -0.0000000  4500.0000  600.00000  10000.000 
 4800.0000  600.00000 -0.0000000  4800.0000  600.00000  10000.000 
 5100.0000  600.00000 -0.0000000  5100.0000  600.00000  10000.000 
 5400.0000  600.00000 -0.0000000  5400.0000  600.00000  10000.000 
 5700.0000  600.00000 -0.0000000  5700.0000  600.00000  10000.000 
 6000.0000  600.00000 -0.0000000  6000.0000  600.00000  10000.000 
 6300.0000  600.00000 -0.0000000  6300.0000  600.00000  10000.000 
 6600.0000  600.00000 -0.0000000  6600.0000  600.00000  10000.000 
 6900.0000  600.00000 -0.0000000  6900.0000  600.00000  10000.000 
 7200.0000  600.00000 -0.0000000  7200.0000  600.00000  10000.000 
 7500.0000  600.00000 -0.0000000  7500.0000  600.00000  10000.000 
 7800.0000  600.00000 -0.0000000  7800.0000  600.00000  10000.000 
 8100.0000  600.00000 -0.0000000  8100.0000  600.00000  10000.000 
 0.0000000  900.00000 -0.0000000  0.0000000  900.00000  10000.000 
 300.00000  900.00000 -0.0000000  300.00000  900.00000  10000.000 
 600.00000  900.00000 -0.0000000  600.00000  900.00000  10000.000 
 900.00000  900.00000 -0.0000000  900.00000  900.00000  10000.000 
 1200.0000  900.00000 -0.0000000  1200.0000  900.00000  10000.000 
 1500.0000  900.00000 -0.0000000  1500.0000  900.00000  10000.000 
 1800.0000  900.00000 -0.0000000  1800.0000  900.00000  10000.000 
 2100.0000  900.00000 -0.0000000  2100.0000  900.00000  10000.000 
 2400.0000  900.00000 -0.0000000  2400.0000  900.00000  10000.000 
 2700.0000  900.00000 -0.0000000  2700.0000  900.00000  10000.000 
 3000.0000  900.00000 -0.0000000  3000.0000  900.00000  10000.000 
 3300.0000  900.00000 -0.0000000  3300.0000  900.00000  10000.000 
 3600.0000  900.00000 -0.0000000  3600.0000  900.00000  10000.000 
 3900.0000  900.00000 -0.0000000  3900.0000  900.00000  10000.000 
 4200.0000  900.00000 -0.0000000  4200.0000  900.00000  10000.000 
 4500.0000  900.00000 -0.0000000  4500.0000  900.00000  10000.000 
 4800.0000  900.00000 -0.0000000  4800.0000  900.00000  10000.000 
 5100.0000  900.00000 -0.0000000  5100.0000  900.00000  10000.000 
 5400.0000  900.00000 -0.0000000  5400.0000  900.00000  10000.000 
 5700.0000  900.00000 -0.0000000  5700.0000  900.00000  10000.000 
 6000.0000  900.00000 -0.0000000  6000.0000  900.00000  10000.000 
 6300.0000  900.00000 -0.0000000  6300.0000  900.00000  10000.000 
 6600.0000  900.00000 -0.0000000  6600.0000  900.00000  10000.000 
 6900.0000  900.00000 -0.0000000  6900.0000  900.00000  10000.000 
 7200.0000  900.00000 -0.0000000  7200.0000  900.00000  10000.000 
 7500.0000  900.00000 -0.0000000  7500.0000  900.00000  10000.000 
 7800.0000  900.00000 -0.0000000  7800.0000  900.00000  10000.000 
 8100.0000  900.00000 -0.0000000  8100.0000  900.00000  10000.000 
 0.0000000  1200.0000 -0.0000000  0.0000000  1200.0000  10000.000 
 300.00000  1200.0000 -0.0000000  300.00000  1200.0000  10000.000 
 600.00000  1200.0000 -0.0000000  600.00000  1200.0000  10000.000 
 900.00000  1200.0000 -0.0000000  900.00000  1200.0000  10000.000 
 1200.0000  1200.0000 -0.0000000  1200.0000  1200.0000  10000.000 
 1500.0000  1200.0000 -0.0000000  1500.0000  1200.0000  10000.000 
 1800.0000  1200.0000 -0.0000000  1800.0000  1200.0000  10000.000 
 2100.0000  1200.0000 -0.0000000  2100.0000  1200.0000  10000.000 
 2400.0000  1200.0000 -0.0000000  2400.0000  1200.0000  10000.000 
 2700.0000  1200.0000 -0.0000000  2700.0000  1200.0000  10000.000 
 3000.0000  1200.0000 -0.0000000  3000.0000  1200.0000  10000.000 
 3300.0000  1200.0000 -0.0000000  3300.0000  1200.0000  10000.000 
 3600.0000  1200.0000 -0.0000000  3600.0000  1200.0000  10000.000 
 3900.0000  1200.0000 -0.0000000  3900.0000  1200.0000  10000.000 
 4200.0000  1200.0000 -0.0000000  4200.0000  1200.0000  10000.000 
 4500.0000  1200.0000 -0.0000000  4500.0000  1200.0000  10000.000 
 4800.0000  1200.0000 -0.0000000  4800.0000  1200.0000  10000.000 
 5100.0000  1200.0000 -0.0000000  5100.0000  1200.0000  10000.000 
 5400.0000  1200.0000 -0.0000000  5400.0000  1200.0000  10000.000 
 5700.0000  1200.0000 -0.0000000  5700.0000  1200.0000  10000.000 
 6000.0000  1200.0000 -0.0000000  6000.0000  1200.0000  10000.000 
 6300.0000  1200.0000 -0.0000000  6300.0000  1200.0000  10000.000 
 6600.0000  1200.0000 -0.0000000  6600.0000  1200.0000  10000.000 
 6900.0000  1200.0000 -0.0000000  6900.0000  1200.0000  10000.000 
 7200.0000  1200.0000 -0.0000000  7200.0000  1200.0000  10000.000 
 7500.0000  1200.0000 -0.0000000  7500.0000  1200.0000  10000.000 
 7800.0000  1200.0000 -0.0000000  7800.0000  1200.0000  10000.000 
 8100.0000  1200.0000 -0.0000000  8100.0000  1200.0000  10000.000 
 0.0000000  1500.0000 -0.0000000  0.0000000  1500.0000  10000.000 
 300.00000  1500.0000 -0.0000000  300.00000  1500.0000  10000.000 
 600.00000  1500.0000 -0.0000000  600.00000  1500.0000  10000.000 
 900.00000  1500.0000 -0.0000000  900.00000  1500.0000  10000.000 
 1200.0000  1500.0000 -0.0000000  1200.0000  1500.0000  10000.000 
 1500.0000  1500.0000 -0.0000000  1500.0000  1500.0000  10000.000 
 1800.0000  1500.0000 -0.0000000  1800.0000  1500.0000  10000.000 
 2100.0000  1500.0000 -0.0000000  2100.0000  1500.0000  10000.000 
 2400.0000  1500.0000 -0.0000000  2400.0000  1500.0000  10000.000 
 2700.0000  1500.0000 -0.0000000  2700.0000  1500.0000  10000.000 
 3000.0000  1500.0000 -0.0000000  3000.0000  1500.0000  10000.000 
 3300.0000  1500.0000 -0.0000000  3300.0000  1500.0000  10000.000 
 3600.0000  1500.0000 -0.0000000  3600.0000  1500.0000  10000.000 
 3900.0000  1500.0000 -0.0000000  3900.0000  1500.0000  10000.000 
 4200.0000  1500.0000 -0.0000000  4200.0000  1500.0000  10000.000 
 4500.0000  1500.0000 -0.0000000  4500.0000  1500.0000  10000.000 
 4800.0000  1500.0000 -0.0000000  4800.0000  1500.0000  10000.000 
 5100.0000  1500.0000 -0.0000000  5100.0000  1500.0000  10000.000 
 5400.0000  1500.0000 -0.0000000  5400.0000  1500.0000  10000.000 
 5700.0000  1500.0000 -0.0000000  5700.0000  1500.0000  10000.000 
 6000.0000  1500.0000 -0.0000000  6000.0000  1500.0000  10000.000 
 6300.0000  1500.0000 -0.0000000  6300.0000  1500.0000  10000.000 
 6600.0000  1500.0000 -0.0000000  6600.0000  1500.0000  10000.000 
 6900.0000  1500.0000 -0.0000000  6900.0000  1500.0000  10000.000 
 7200.0000  1500.0000 -0.0000000  7200.0000  1500.0000  10000.000 
 7500.0000  1500.0000 -0.0000000  7500.0000  1500.0000  10000.000 
 7800.0000  1500.0000 -0.0000000  7800.0000  1500.0000  10000.000 
 8100.0000  1500.0000 -0.0000000  8100.0000  1500.0000  10000.000 
 0.0000000  1800.0000 -0.0000000  0.0000000  1800.0000  10000.000 
 300.00000  1800.0000 -0.0000000  300.00000  1800.0000  10000.000 
 600.00000  1800.0000 -0.0000000  600.00000  1800.0000  10000.000 
 900.00000  1800.0000 -0.0000000  900.00000  1800.0000  10000.000 
 1200.0000  1800.0000 -0.0000000  1200.0000  1800.0000  10000.000 
 1500.0000  1800.0000 -0.0000000  1500.0000  1800.0000  10000.000 
 1800.0000  1800.0000 -0.0000000  1800.0000  1800.0000  10000.000 
 2100.0000  1800.0000 -0.0000000  2100.0000  1800.0000  10000.000 
 2400.0000  1800.0000 -0.0000000  2400.0000  1800.0000  10000.000 
 2700.0000  1800.0000 -0.0000000  2700.0000  1800.0000  10000.000 
 3000.0000  1800.0000 -0.0000000  3000.0000  1800.0000  10000.000 
 3300.0000  1800.0000 -0.0000000  3300.0000  1800.0000  10000.000 
 3600.0000  1800.0000 -0.0000000  3600.0000  1800.0000  10000.000 
 3900.0000  1800.0000 -0.0000000  3900.0000  1800.0000  10000.000 
 4200.0000  1800.0000 -0.0000000  4200.0000  1800.0000  10000.000 
 4500.0000  1800.0000 -0.0000000  4500.0000  1800.0000  10000.000 
 4800.0000  1800.0000 -0.0000000  4800.0000  1800.0000  10000.000 
 5100.0000  1800.0000 -0.0000000  5100.0000  1800.0000  10000.000 
 5400.0000  1800.0000 -0.0000000  5400.0000  1800.0000  10000.000 
 5700.0000  1800.0000 -0.0000000  5700.0000  1800.0000  10000.000 
 6000.0000  1800.0000 -0.0000000  6000.0000  1800.0000  10000.000 
 6300.0000  1800.0000 -0.0000000  6300.0000  1800.0000  10000.000 
 6600.0000  1800.0000 -0.0000000  6600.0000  1800.0000  10000.000 
 6900.0000  1800.0000 -0.0000000  6900.0000  1800.0000  10000.000 
 7200.0000  1800.0000 -0.0000000  7200.0000  1800.0000  10000.000 
 7500.0000  1800.0000 -0.0000000  7500.0000  1800.0000  10000.000 
 7800.0000  1800.0000 -0.0000000  7800.0000  1800.0000  10000.000 
 8100.0000  1800.0000 -0.0000000  8100.0000  1800.0000  10000.000 
 0.0000000  2100.0000 -0.0000000  0.0000000  2100.0000  10000.000 
 300.00000  2100.0000 -0.0000000  300.00000  2100.0000  10000.000 
 600.00000  2100.0000 -0.0000000  600.00000  2100.0000  10000.000 
 900.00000  2100.0000 -0.0000000  900.00000  2100.0000  10000.000 
 1200.0000  2100.0000 -0.0000000  1200.0000  2100.0000  10000.000 
 1500.0000  2100.0000 -0.0000000  1500.0000  2100.0000  10000.000 
 1800.0000  2100.0000 -0.0000000  1800.0000  2100.0000  10000.000 
 2100.0000  2100.0000 -0.0000000  2100.0000  2100.0000  10000.000 
 2400.0000  2100.0000 -0.0000000  2400.0000  2100.0000  10000.000 
 2700.0000  2100.0000 -0.0000000  2700.0000  2100.0000  10000.000 
 3000.0000  2100.0000 -0.0000000  3000.0000  2100.0000  10000.000 
 3300.0000  2100.0000 -0.0000000  3300.0000  2100.0000  10000.000 
 3600.0000  2100.0000 -0.0000000  3600.0000  2100.0000  10000.000 
 3900.0000  2100.0000 -0.0000000  3900.0000  2100.0000  10000.000 
 4200.0000  2100.0000 -0.0000000  4200.0000  2100.0000  10000.000 
 4500.0000  2100.0000 -0.0000000  4500.0000  2100.0000  10000.000 
 4800.0000  2100.0000 -0.0000000  4800.0000  2100.0000  10000.000 
 5100.0000  2100.0000 -0.0000000  5100.0000  2100.0000  10000.000 
 5400.0000  2100.0000 -0.0000000  5400.0000  2100.0000  10000.000 
 5700.0000  2100.0000 -0.0000000  5700.0000  2100.0000  10000.000 
 6000.0000  2100.0000 -0.0000000  6000.0000  2100.0000  10000.000 
 6300.0000  2100.0000 -0.0000000  6300.0000  2100.0000  10000.000 
 6600.0000  2100.0000 -0.0000000  6600.0000  2100.0000  10000.000 
 6900.0000  2100.0000 -0.0000000  6900.0000  2100.0000  10000.000 
 7200.0000  2100.0000 -0.0000000  7200.0000  2100.0000  10000.000 
 7500.0000  2100.0000 -0.0000000  7500.0000  2100.0000  10000.000 
 7800.0000  2100.0000 -0.0000000  7800.0000  2100.0000  10000.000 
 8100.0000  2100.0000 -0.0000000  8100.0000  2100.0000  10000.000 
 0.0000000  2400.0000 -0.0000000  0.0000000  2400.0000  10000.000 
 300.00000  2400.0000 -0.0000000  300.00000  2400.0000  10000.000 
 600.00000  2400.0000 -0.0000000  600.00000  2400.0000  10000.000 
 900.00000  2400.0000 -0.0000000  900.00000  2400.0000  10000.000 
 1200.0000  2400.0000 -0.0000000  1200.0000  2400.0000  10000.000 
 1500.0000  2400.0000 -0.0000000  1500.0000  2400.0000  10000.000 
 1800.0000  2400.0000 -0.0000000  1800.0000  2400.0000  10000.000 
 2100.0000  2400.0000 -0.0000000  2100.0000  2400.0000  10000.000 
 2400.0000  2400.0000 -0.0000000  2400.0000  2400.0000  10000.000 
 2700.0000  2400.0000 -0.0000000  2700.0000  2400.0000  10000.000 
 3000.0000  2400.0000 -0.0000000  3000.0000  2400.0000  10000.000 
 3300.0000  2400.0000 -0.0000000  3300.0000  2400.0000  10000.000 
 3600.0000  2400.0000 -0.0000000  3600.0000  2400.0000  10000.000 
 3900.0000  2400.0000 -0.0000000  3900.0000  2400.0000  10000.000 
 4200.0000  2400.0000 -0.0000000  4200.0000  2400.0000  10000.000 
 4500.0000  2400.0000 -0.0000000  4500.0000  2400.0000  10000.000 
 4800.0000  2400.0000 -0.0000000  4800.0000  2400.0000  10000.000 
 5100.0000  2400.0000 -0.0000000  5100.0000  2400.0000  10000.000 
 5400.0000  2400.0000 -0.0000000  5400.0000  2400.0000  10000.000 
 5700.0000  2400.0000 -0.0000000  5700.0000  2400.0000  10000.000 
 6000.0000  2400.0000 -0.0000000  6000.0000  2400.0000  10000.000 
 6300.0000  2400.0000 -0.0000000  6300.0000  2400.0000  10000.000 
 6600.0000  2400.0000 -0.0000000  6600.0000  2400.0000  10000.000 
 6900.0000  2400.0000 -0.0000000  6900.0000  2400.0000  10000.000 
 7200.0000  2400.0000 -0.0000000  7200.0000  2400.0000  10000.000 
 7500.0000  2400.0000 -0.0000000  7500.0000  2400.0000  10000.000 
 7800.0000  2400.0000 -0.0000000  7800.0000  2400.0000  10000.000 
 8100.0000  2400.0000 -0.0000000  8100.0000  2400.0000  10000.000 
 0.0000000  2700.0000 -0.0000000  0.0000000  2700.0000  10000.000 
 300.00000  2700.0000 -0.0000000  300.00000  2700.0000  10000.000 
 600.00000  2700.0000 -0.0000000  600.00000  2700.0000  10000.000 
 900.00000  2700.0000 -0.0000000  900.00000  2700.0000  10000.000 
 1200.0000  2700.0000 -0.0000000  1200.0000  2700.0000  10000.000 
 1500.0000  2700.0000 -0.0000000  1500.0000  2700.0000  10000.000 
 1800.0000  2700.0000 -0.0000000  1800.0000  2700.0000  10000.000 
 2100.0000  2700.0000 -0.0000000  2100.0000  2700.0000  10000.000 
 2400.0000  2700.0000 -0.0000000  2400.0000  2700.0000  10000.000 
 2700.0000  2700.0000 -0.0000000  2700.0000  2700.0000  10000.000 
 3000.0000  2700.0000 -0.0000000  3000.0000  2700.0000  10000.000 
 3300.0000  2700.0000 -0.0000000  3300.0000  2700.0000  10000.000 
 3600.0000  2700.0000 -0.0000000  3600.0000  2700.0000  10000.000 
 3900.0000  2700.0000 -0.0000000  3900.0000  2700.0000  10000.000 
 4200.0000  2700.0000 -0.0000000  4200.0000  2700.0000  10000.000 
 4500.0000  2700.0000 -0.0000000  4500.0000  2700.0000  10000.000 
 4800.0000  2700.0000 -0.0000000  4800.0000  2700.0000  10000.000 
 5100.0000  2700.0000 -0.0000000  5100.0000  2700.0000  10000.000 
 5400.0000  2700.0000 -0.0000000  5400.0000  2700.0000  10000.000 
 5700.0000  2700.0000 -0.0000000  5700.0000  2700.0000  10000.000 
 6000.0000  2700.0000 -0.0000000  6000.0000  2700.0000  10000.000 
 6300.0000  2700.0000 -0.0000000  6300.0000  2700.0000  10000.000 
 6600.0000  2700.0000 -0.0000000  6600.0000  2700.0000  10000.000 
 6900.0000  2700.0000 -0.0000000  6900.0000  2700.0000  10000.000 
 7200.0000  2700.0000 -0.0000000  7200.0000  2700.0000  10000.000 
 7500.0000  2700.0000 -0.0000000  7500.0000  2700.0000  10000.000 
 7800.0000  2700.0000 -0.0000000  7800.0000  2700.0000  10000.000 
 8100.0000  2700.0000 -0.0000000  8100.0000  2700.0000  10000.000 
 0.0000000  3000.0000 -0.0000000  0.0000000  3000.0000  10000.000 
 300.00000  3000.0000 -0.0000000  300.00000  3000.0000  10000.000 
 600.00000  3000.0000 -0.0000000  600.00000  3000.0000  10000.000 
 900.00000  3000.0000 -0.0000000  900.00000  3000.0000  10000.000 
 1200.0000  3000.0000 -0.0000000  1200.0000  3000.0000  10000.000 
 1500.0000  3000.0000 -0.0000000  1500.0000  3000.0000  10000.000 
 1800.0000  3000.0000 -0.0000000  1800.0000  3000.0000  10000.000 
 2100.0000  3000.0000 -0.0000000  2100.0000  3000.0000  10000.000 
 2400.0000  3000.0000 -0.0000000  2400.0000  3000.0000  10000.000 
 2700.0000  3000.0000 -0.0000000  2700.0000  3000.0000  10000.000 
 3000.0000  3000.0000 -0.0000000  3000.0000  3000.0000  10000.000 
 3300.0000  3000.0000 -0.0000000  3300.0000  3000.0000  10000.000 
 3600.0000  3000.0000 -0.0000000  3600.0000  3000.0000  10000.000 
 3900.0000  3000.0000 -0.0000000  3900.0000  3000.0000  10000.000 
 4200.0000  3000.0000 -0.0000000  4200.0000  3000.0000  10000.000 
 4500.0000  3000.0000 -0.0000000  4500.0000  3000.0000  10000.000 
 4800.0000  3000.0000 -0.0000000  4800.0000  3000.0000  10000.000 
 5100.0000  3000.0000 -0.0000000  5100.0000  3000.0000  10000.000 
 5400.0000  3000.0000 -0.0000000  5400.0000  3000.0000  10000.000 
 5700.0000  3000.0000 -0.0000000  5700.0000  3000.0000  10000.000 
 6000.0000  3000.0000 -0.0000000  6000.0000  3000.0000  10000.000 
 6300.0000  3000.0000 -0.0000000  6300.0000  3000.0000  10000.000 
 6600.0000  3000.0000 -0.0000000  6600.0000  3000.0000  10000.000 
 6900.0000  3000.0000 -0.0000000  6900.0000  3000.0000  10000.000 
 7200.0000  3000.0000 -0.0000000  7200.0000  3000.0000  10000.000 
 7500.0000  3000.0000 -0.0000000  7500.0000  3000.0000  10000.000 
 7800.0000  3000.0000 -0.0000000  7800.0000  3000.0000  10000.000 
 8100.0000  3000.0000 -0.0000000  8100.0000  3000.0000  10000.000 
 0.0000000  3300.0000 -0.0000000  0.0000000  3300.0000  10000.000 
 300.00000  3300.0000 -0.0000000  300.00000  3300.0000  10000.000 
 600.00000  3300.0000 -0.0000000  600.00000  3300.0000  10000.000 
 900.00000  3300.0000 -0.0000000  900.00000  3300.0000  10000.000 
 1200.0000  3300.0000 -0.0000000  1200.0000  3300.0000  10000.000 
 1500.0000  3300.0000 -0.0000000  1500.0000  3300.0000  10000.000 
 1800.0000  3300.0000 -0.0000000  1800.0000  3300.0000  10000.000 
 2100.0000  3300.0000 -0.0000000  2100.0000  3300.0000  10000.000 
 2400.0000  3300.0000 -0.0000000  2400.0000  3300.0000  10000.000 
 2700.0000  3300.0000 -0.0000000  2700.0000  3300.0000  10000.000 
 3000.0000  3300.0000 -0.0000000  3000.0000  3300.0000  10000.000 
 3300.0000  3300.0000 -0.0000000  3300.0000  3300.0000  10000.000 
 3600.0000  3300.0000 -0.0000000  3600.0000  3300.0000  10000.000 
 3900.0000  3300.0000 -0.0000000  3900.0000  3300.0000  10000.000 
 4200.0000  3300.0000 -0.0000000  4200.0000  3300.0000  10000.000 
 4500.0000  3300.0000 -0.0000000  4500.0000  3300.0000  10000.000 
 4800.0000  3300.0000 -0.0000000  4800.0000  3300.0000  10000.000 
 5100.0000  3300.0000 -0.0000000  5100.0000  3300.0000  10000.000 
 5400.0000  3300.0000 -0.0000000  5400.0000  3300.0000  10000.000 
 5700.0000  3300.0000 -0.0000000  5700.0000  3300.0000  10000.000 
 6000.0000  3300.0000 -0.0000000  6000.0000  3300.0000  10000.000 
 6300.0000  3300.0000 -0.0000000  6300.0000  3300.0000  10000.000 
 6600.0000  3300.0000 -0.0000000  6600.0000  3300.0000  10000.000 
 6900.0000  3300.0000 -0.0000000  6900.0000  3300.0000  10000.000 
 7200.0000  3300.0000 -0.0000000  7200.0000  3300.0000  10000.000 
 7500.0000  3300.0000 -0.0000000  7500.0000  3300.0000  10000.000 
 7800.0000  3300.0000 -0.0000000  7800.0000  3300.0000  10000.000 
 8100.0000  3300.0000 -0.0000000  8100.0000  3300.0000  10000.000 
 0.0000000  3600.0000 -0.0000000  0.0000000  3600.0000  10000.000 
 300.00000  3600.0000 -0.0000000  300.00000  3600.0000  10000.000 
 600.00000  3600.0000 -0.0000000  600.00000  3600.0000  10000.000 
 900.00000  3600.0000 -0.0000000  900.00000  3600.0000  10000.000 
 1200.0000  3600.0000 -0.0000000  1200.0000  3600.0000  10000.000 
 1500.0000  3600.0000 -0.0000000  1500.0000  3600.0000  10000.000 
 1800.0000  3600.0000 -0.0000000  1800.0000  3600.0000  10000.000 
 2100.0000  3600.0000 -0.0000000  2100.0000  3600.0000  10000.000 
 2400.0000  3600.0000 -0.0000000  2400.0000  3600.0000  10000.000 
 2700.0000  3600.0000 -0.0000000  2700.0000  3600.0000  10000.000 
 3000.0000  3600.0000 -0.0000000  3000.0000  3600.0000  10000.000 
 3300.0000  3600.0000 -0.0000000  3300.0000  3600.0000  10000.000 
 3600.0000  3600.0000 -0.0000000  3600.0000  3600.0000  10000.000 
 3900.0000  3600.0000 -0.0000000  3900.0000  3600.0000  10000.000 
 4200.0000  3600.0000 -0.0000000  4200.0000  3600.0000  10000.000 
 4500.0000  3600.0000 -0.0000000  4500.0000  3600.0000  10000.000 
 4800.0000  3600.0000 -0.0000000  4800.0000  3600.0000  10000.000 
 5100.0000  3600.0000 -0.0000000  5100.0000  3600.0000  10000.000 
 5400.0000  3600.0000 -0.0000000  5400.0000  3600.0000  10000.000 
 5700.0000  3600.0000 -0.0000000  5700.0000  3600.0000  10000.000 
 6000.0000  3600.0000 -0.0000000  6000.0000  3600.0000  10000.000 
 6300.0000  3600.0000 -0.0000000  6300.0000  3600.0000  10000.000 
 6600.0000  3600.0000 -0.0000000  6600.0000  3600.0000  10000.000 
 6900.0000  3600.0000 -0.0000000  6900.0000  3600.0000  10000.000 
 7200.0000  3600.0000 -0.0000000  7200.0000  3600.0000  10000.000 
 7500.0000  3600.0000 -0.0000000  7500.0000  3600.0000  10000.000 
 7800.0000  3600.0000 -0.0000000  7800.0000  3600.0000  10000.000 
 8100.0000  3600.0000 -0.0000000  8100.0000  3600.0000  10000.000 
 0.0000000  3900.0000 -0.0000000  0.0000000  3900.0000  10000.000 
 300.00000  3900.0000 -0.0000000  300.00000  3900.0000  10000.000 
 600.00000  3900.0000 -0.0000000  600.00000  3900.0000  10000.000 
 900.00000  3900.0000 -0.0000000  900.00000  3900.0000  10000.000 
 1200.0000  3900.0000 -0.0000000  1200.0000  3900.0000  10000.000 
 1500.0000  3900.0000 -0.0000000  1500.0000  3900.0000  10000.000 
 1800.0000  3900.0000 -0.0000000  1800.0000  3900.0000  10000.000 
 2100.0000  3900.0000 -0.0000000  2100.0000  3900.0000  10000.000 
 2400.0000  3900.0000 -0.0000000  2400.0000  3900.0000  10000.000 
 2700.0000  3900.0000 -0.0000000  2700.0000  3900.0000  10000.000 
 3000.0000  3900.0000 -0.0000000  3000.0000  3900.0000  10000.000 
 3300.0000  3900.0000 -0.0000000  3300.0000  3900.0000  10000.000 
 3600.0000  3900.0000 -0.0000000  3600.0000  3900.0000  10000.000 
 3900.0000  3900.0000 -0.0000000  3900.0000  3900.0000  10000.000 
 4200.0000  3900.0000 -0.0000000  4200.0000  3900.0000  10000.000 
 4500.0000  3900.0000 -0.0000000  4500.0000  3900.0000  10000.000 
 4800.0000  3900.0000 -0.0000000  4800.0000  3900.0000  10000.000 
 5100.0000  3900.0000 -0.0000000  5100.0000  3900.0000  10000.000 
 5400.0000  3900.0000 -0.0000000  5400.0000  3900.0000  10000.000 
 5700.0000  3900.0000 -0.0000000  5700.0000  3900.0000  10000.000 
 6000.0000  3900.0000 -0.0000000  6000.0000  3900.0000  10000.000 
 6300.0000  3900.0000 -0.0000000  6300.0000  3900.0000  10000.000 
 6600.0000  3900.0000 -0.0000000  6600.0000  3900.0000  10000.000 
 6900.0000  3900.0000 -0.0000000  6900.0000  3900.0000  10000.000 
 7200.0000  3900.0000 -0.0000000  7200.0000  3900.0000  10000.000 
 7500.0000  3900.0000 -0.0000000  7500.0000  3900.0000  10000.000 
 7800.0000  3900.0000 -0.0000000  7800.0000  3900.0000  10000.000 
 8100.0000  3900.0000 -0.0000000  8100.0000  3900.0000  10000.000 
 0.0000000  4200.0000 -0.0000000  0.0000000  4200.0000  10000.000 
 300.00000  4200.0000 -0.0000000  300.00000  4200.0000  10000.000 
 600.00000  4200.0000 -0.0000000  600.00000  4200.0000  10000.000 
 900.00000  4200.0000 -0.0000000  900.00000  4200.0000  10000.000 
 1200.0000  4200.0000 -0.0000000  1200.0000  4200.0000  10000.000 
 1500.0000  4200.0000 -0.0000000  1500.0000  4200.0000  10000.000 
 1800.0000  4200.0000 -0.0000000  1800.0000  4200.0000  10000.000 
 2100.0000  4200.0000 -0.0000000  2100.0000  4200.0000  10000.000 
 2400.0000  4200.0000 -0.0000000  2400.0000  4200.0000  10000.000 
 2700.0000  4200.0000 -0.0000000  2700.0000  4200.0000  10000.000 
 3000.0000  4200.0000 -0.0000000  3000.0000  4200.0000  10000.000 
 3300.0000  4200.0000 -0.0000000  3300.0000  4200.0000  10000.000 
 3600.0000  4200.0000 -0.0000000  3600.0000  4200.0000  10000.000 
 3900.0000  4200.0000 -0.0000000  3900.0000  4200.0000  10000.000 
 4200.0000  4200.0000 -0.0000000  4200.0000  4200.0000  10000.000 
 4500.0000  4200.0000 -0.0000000  4500.0000  4200.0000  10000.000 
 4800.0000  4200.0000 -0.0000000  4800.0000  4200.0000  10000.000 
 5100.0000  4200.0000 -0.0000000  5100.0000  4200.0000  10000.000 
 5400.0000  4200.0000 -0.0000000  5400.0000  4200.0000  10000.000 
 5700.0000  4200.0000 -0.0000000  5700.0000  4200.0000  10000.000 
 6000.0000  4200.0000 -0.0000000  6000.0000  4200.0000  10000.000 
 6300.0000  4200.0000 -0.0000000  6300.0000  4200.0000  10000.000 
 6600.0000  4200.0000 -0.0000000  6600.0000  4200.0000  10000.000 
 6900.0000  4200.0000 -0.0000000  6900.0000  4200.0000  10000.000 
 7200.0000  4200.0000 -0.0000000  7200.0000  4200.0000  10000.000 
 7500.0000  4200.0000 -0.0000000  7500.0000  4200.0000  10000.000 
 7800.0000  4200.0000 -0.0000000  7800.0000  4200.0000  10000.000 
 8100.0000  4200.0000 -0.0000000  8100.0000  4200.0000  10000.000 
 0.0000000  4500.0000 -0.0000000  0.0000000  4500.0000  10000.000 
 300.00000  4500.0000 -0.0000000  300.00000  4500.0000  10000.000 
 600.00000  4500.0000 -0.0000000  600.00000  4500.0000  10000.000 
 900.00000  4500.0000 -0.0000000  900.00000  4500.0000  10000.000 
 1200.0000  4500.0000 -0.0000000  1200.0000  4500.0000  10000.000 
 1500.0000  4500.0000 -0.0000000  1500.0000  4500.0000  10000.000 
 1800.0000  4500.0000 -0.0000000  1800.0000  4500.0000  10000.000 
 2100.0000  4500.0000 -0.0000000  2100.0000  4500.0000  10000.000 
 2400.0000  4500.0000 -0.0000000  2400.0000  4500.0000  10000.000 
 2700.0000  4500.0000 -0.0000000  2700.0000  4500.0000  10000.000 
 3000.0000  4500.0000 -0.0000000  3000.0000  4500.0000  10000.000 
 3300.0000  4500.0000 -0.0000000  3300.0000  4500.0000  10000.000 
 3600.0000  4500.0000 -0.0000000  3600.0000  4500.0000  10000.000 
 3900.0000  4500.0000 -0.0000000  3900.0000  4500.0000  10000.000 
 4200.0000  4500.0000 -0.0000000  4200.0000  4500.0000  10000.000 
 4500.0000  4500.0000 -0.0000000  4500.0000  4500.0000  10000.000 
 4800.0000  4500.0000 -0.0000000  4800.0000  4500.0000  10000.000 
 5100.0000  4500.0000 -0.0000000  5100.0000  4500.0000  10000.000 
 5400.0000  4500.0000 -0.0000000  5400.0000  4500.0000  10000.000 
 5700.0000  4500.0000 -0.0000000  5700.0000  4500.0000  10000.000 
 6000.0000  4500.0000 -0.0000000  6000.0000  4500.0000  10000.000 
 6300.0000  4500.0000 -0.0000000  6300.0000  4500.0000  10000.000 
 6600.0000  4500.0000 -0.0000000  6600.0000  4500.0000  10000.000 