-- Export from Workflow Calibration Forward Team
-- Grid: MCh_Inferior_Versao_0-2_SIM_Sim333_
-- Done by Endriw Rafael on Wed Nov 19 13:35:06 BRT 2025
-- Continuous NoValue: -77777.0
-- Discrete NoValue: 0
MAPUNITS
METRES /

MAPAXES
 808298.0 8922962.0 808298.0 8923962.0 809298.0 8923962.0 /

GRIDUNIT
METRES /

SPECGRID
27 24 21 1 F /

COORD
 0.000000  0.000000 0.000000  0.000000  0.000000  10000.000000 
 300.000000  0.000000 0.000000  300.000000  0.000000  10000.000000 
 600.000000  0.000000 0.000000  600.000000  0.000000  10000.000000 
 900.000000  0.000000 0.000000  900.000000  0.000000  10000.000000 
 1200.000000  0.000000 0.000000  1200.000000  0.000000  10000.000000 
 1500.000000  0.000000 0.000000  1500.000000  0.000000  10000.000000 
 1800.000000  0.000000 0.000000  1800.000000  0.000000  10000.000000 
 2100.000000  0.000000 0.000000  2100.000000  0.000000  10000.000000 
 2400.000000  0.000000 0.000000  2400.000000  0.000000  10000.000000 
 2700.000000  0.000000 0.000000  2700.000000  0.000000  10000.000000 
 3000.000000  0.000000 0.000000  3000.000000  0.000000  10000.000000 
 3300.000000  0.000000 0.000000  3300.000000  0.000000  10000.000000 
 3600.000000  0.000000 0.000000  3600.000000  0.000000  10000.000000 
 3900.000000  0.000000 0.000000  3900.000000  0.000000  10000.000000 
 4200.000000  0.000000 0.000000  4200.000000  0.000000  10000.000000 
 4500.000000  0.000000 0.000000  4500.000000  0.000000  10000.000000 
 4800.000000  0.000000 0.000000  4800.000000  0.000000  10000.000000 
 5100.000000  0.000000 0.000000  5100.000000  0.000000  10000.000000 
 5400.000000  0.000000 0.000000  5400.000000  0.000000  10000.000000 
 5700.000000  0.000000 0.000000  5700.000000  0.000000  10000.000000 
 6000.000000  0.000000 0.000000  6000.000000  0.000000  10000.000000 
 6300.000000  0.000000 0.000000  6300.000000  0.000000  10000.000000 
 6600.000000  0.000000 0.000000  6600.000000  0.000000  10000.000000 
 6900.000000  0.000000 0.000000  6900.000000  0.000000  10000.000000 
 7200.000000  0.000000 0.000000  7200.000000  0.000000  10000.000000 
 7500.000000  0.000000 0.000000  7500.000000  0.000000  10000.000000 
 7800.000000  0.000000 0.000000  7800.000000  0.000000  10000.000000 
 8100.000000  0.000000 0.000000  8100.000000  0.000000  10000.000000 
 0.000000  300.000000 0.000000  0.000000  300.000000  10000.000000 
 300.000000  300.000000 0.000000  300.000000  300.000000  10000.000000 
 600.000000  300.000000 0.000000  600.000000  300.000000  10000.000000 
 900.000000  300.000000 0.000000  900.000000  300.000000  10000.000000 
 1200.000000  300.000000 0.000000  1200.000000  300.000000  10000.000000 
 1500.000000  300.000000 0.000000  1500.000000  300.000000  10000.000000 
 1800.000000  300.000000 0.000000  1800.000000  300.000000  10000.000000 
 2100.000000  300.000000 0.000000  2100.000000  300.000000  10000.000000 
 2400.000000  300.000000 0.000000  2400.000000  300.000000  10000.000000 
 2700.000000  300.000000 0.000000  2700.000000  300.000000  10000.000000 
 3000.000000  300.000000 0.000000  3000.000000  300.000000  10000.000000 
 3300.000000  300.000000 0.000000  3300.000000  300.000000  10000.000000 
 3600.000000  300.000000 0.000000  3600.000000  300.000000  10000.000000 
 3900.000000  300.000000 0.000000  3900.000000  300.000000  10000.000000 
 4200.000000  300.000000 0.000000  4200.000000  300.000000  10000.000000 
 4500.000000  300.000000 0.000000  4500.000000  300.000000  10000.000000 
 4800.000000  300.000000 0.000000  4800.000000  300.000000  10000.000000 
 5100.000000  300.000000 0.000000  5100.000000  300.000000  10000.000000 
 5400.000000  300.000000 0.000000  5400.000000  300.000000  10000.000000 
 5700.000000  300.000000 0.000000  5700.000000  300.000000  10000.000000 
 6000.000000  300.000000 0.000000  6000.000000  300.000000  10000.000000 
 6300.000000  300.000000 0.000000  6300.000000  300.000000  10000.000000 
 6600.000000  300.000000 0.000000  6600.000000  300.000000  10000.000000 
 6900.000000  300.000000 0.000000  6900.000000  300.000000  10000.000000 
 7200.000000  300.000000 0.000000  7200.000000  300.000000  10000.000000 
 7500.000000  300.000000 0.000000  7500.000000  300.000000  10000.000000 
 7800.000000  300.000000 0.000000  7800.000000  300.000000  10000.000000 
 8100.000000  300.000000 0.000000  8100.000000  300.000000  10000.000000 
 0.000000  600.000000 0.000000  0.000000  600.000000  10000.000000 
 300.000000  600.000000 0.000000  300.000000  600.000000  10000.000000 
 600.000000  600.000000 0.000000  600.000000  600.000000  10000.000000 
 900.000000  600.000000 0.000000  900.000000  600.000000  10000.000000 
 1200.000000  600.000000 0.000000  1200.000000  600.000000  10000.000000 
 1500.000000  600.000000 0.000000  1500.000000  600.000000  10000.000000 
 1800.000000  600.000000 0.000000  1800.000000  600.000000  10000.000000 
 2100.000000  600.000000 0.000000  2100.000000  600.000000  10000.000000 
 2400.000000  600.000000 0.000000  2400.000000  600.000000  10000.000000 
 2700.000000  600.000000 0.000000  2700.000000  600.000000  10000.000000 
 3000.000000  600.000000 0.000000  3000.000000  600.000000  10000.000000 
 3300.000000  600.000000 0.000000  3300.000000  600.000000  10000.000000 
 3600.000000  600.000000 0.000000  3600.000000  600.000000  10000.000000 
 3900.000000  600.000000 0.000000  3900.000000  600.000000  10000.000000 
 4200.000000  600.000000 0.000000  4200.000000  600.000000  10000.000000 
 4500.000000  600.000000 0.000000  4500.000000  600.000000  10000.000000 
 4800.000000  600.000000 0.000000  4800.000000  600.000000  10000.000000 
 5100.000000  600.000000 0.000000  5100.000000  600.000000  10000.000000 
 5400.000000  600.000000 0.000000  5400.000000  600.000000  10000.000000 
 5700.000000  600.000000 0.000000  5700.000000  600.000000  10000.000000 
 6000.000000  600.000000 0.000000  6000.000000  600.000000  10000.000000 
 6300.000000  600.000000 0.000000  6300.000000  600.000000  10000.000000 
 6600.000000  600.000000 0.000000  6600.000000  600.000000  10000.000000 
 6900.000000  600.000000 0.000000  6900.000000  600.000000  10000.000000 
 7200.000000  600.000000 0.000000  7200.000000  600.000000  10000.000000 
 7500.000000  600.000000 0.000000  7500.000000  600.000000  10000.000000 
 7800.000000  600.000000 0.000000  7800.000000  600.000000  10000.000000 
 8100.000000  600.000000 0.000000  8100.000000  600.000000  10000.000000 
 0.000000  900.000000 0.000000  0.000000  900.000000  10000.000000 
 300.000000  900.000000 0.000000  300.000000  900.000000  10000.000000 
 600.000000  900.000000 0.000000  600.000000  900.000000  10000.000000 
 900.000000  900.000000 0.000000  900.000000  900.000000  10000.000000 
 1200.000000  900.000000 0.000000  1200.000000  900.000000  10000.000000 
 1500.000000  900.000000 0.000000  1500.000000  900.000000  10000.000000 
 1800.000000  900.000000 0.000000  1800.000000  900.000000  10000.000000 
 2100.000000  900.000000 0.000000  2100.000000  900.000000  10000.000000 
 2400.000000  900.000000 0.000000  2400.000000  900.000000  10000.000000 
 2700.000000  900.000000 0.000000  2700.000000  900.000000  10000.000000 
 3000.000000  900.000000 0.000000  3000.000000  900.000000  10000.000000 
 3300.000000  900.000000 0.000000  3300.000000  900.000000  10000.000000 
 3600.000000  900.000000 0.000000  3600.000000  900.000000  10000.000000 
 3900.000000  900.000000 0.000000  3900.000000  900.000000  10000.000000 
 4200.000000  900.000000 0.000000  4200.000000  900.000000  10000.000000 
 4500.000000  900.000000 0.000000  4500.000000  900.000000  10000.000000 
 4800.000000  900.000000 0.000000  4800.000000  900.000000  10000.000000 
 5100.000000  900.000000 0.000000  5100.000000  900.000000  10000.000000 
 5400.000000  900.000000 0.000000  5400.000000  900.000000  10000.000000 
 5700.000000  900.000000 0.000000  5700.000000  900.000000  10000.000000 
 6000.000000  900.000000 0.000000  6000.000000  900.000000  10000.000000 
 6300.000000  900.000000 0.000000  6300.000000  900.000000  10000.000000 
 6600.000000  900.000000 0.000000  6600.000000  900.000000  10000.000000 
 6900.000000  900.000000 0.000000  6900.000000  900.000000  10000.000000 
 7200.000000  900.000000 0.000000  7200.000000  900.000000  10000.000000 
 7500.000000  900.000000 0.000000  7500.000000  900.000000  10000.000000 
 7800.000000  900.000000 0.000000  7800.000000  900.000000  10000.000000 
 8100.000000  900.000000 0.000000  8100.000000  900.000000  10000.000000 
 0.000000  1200.000000 0.000000  0.000000  1200.000000  10000.000000 
 300.000000  1200.000000 0.000000  300.000000  1200.000000  10000.000000 
 600.000000  1200.000000 0.000000  600.000000  1200.000000  10000.000000 
 900.000000  1200.000000 0.000000  900.000000  1200.000000  10000.000000 
 1200.000000  1200.000000 0.000000  1200.000000  1200.000000  10000.000000 
 1500.000000  1200.000000 0.000000  1500.000000  1200.000000  10000.000000 
 1800.000000  1200.000000 0.000000  1800.000000  1200.000000  10000.000000 
 2100.000000  1200.000000 0.000000  2100.000000  1200.000000  10000.000000 
 2400.000000  1200.000000 0.000000  2400.000000  1200.000000  10000.000000 
 2700.000000  1200.000000 0.000000  2700.000000  1200.000000  10000.000000 
 3000.000000  1200.000000 0.000000  3000.000000  1200.000000  10000.000000 
 3300.000000  1200.000000 0.000000  3300.000000  1200.000000  10000.000000 
 3600.000000  1200.000000 0.000000  3600.000000  1200.000000  10000.000000 
 3900.000000  1200.000000 0.000000  3900.000000  1200.000000  10000.000000 
 4200.000000  1200.000000 0.000000  4200.000000  1200.000000  10000.000000 
 4500.000000  1200.000000 0.000000  4500.000000  1200.000000  10000.000000 
 4800.000000  1200.000000 0.000000  4800.000000  1200.000000  10000.000000 
 5100.000000  1200.000000 0.000000  5100.000000  1200.000000  10000.000000 
 5400.000000  1200.000000 0.000000  5400.000000  1200.000000  10000.000000 
 5700.000000  1200.000000 0.000000  5700.000000  1200.000000  10000.000000 
 6000.000000  1200.000000 0.000000  6000.000000  1200.000000  10000.000000 
 6300.000000  1200.000000 0.000000  6300.000000  1200.000000  10000.000000 
 6600.000000  1200.000000 0.000000  6600.000000  1200.000000  10000.000000 
 6900.000000  1200.000000 0.000000  6900.000000  1200.000000  10000.000000 
 7200.000000  1200.000000 0.000000  7200.000000  1200.000000  10000.000000 
 7500.000000  1200.000000 0.000000  7500.000000  1200.000000  10000.000000 
 7800.000000  1200.000000 0.000000  7800.000000  1200.000000  10000.000000 
 8100.000000  1200.000000 0.000000  8100.000000  1200.000000  10000.000000 
 0.000000  1500.000000 0.000000  0.000000  1500.000000  10000.000000 
 300.000000  1500.000000 0.000000  300.000000  1500.000000  10000.000000 
 600.000000  1500.000000 0.000000  600.000000  1500.000000  10000.000000 
 900.000000  1500.000000 0.000000  900.000000  1500.000000  10000.000000 
 1200.000000  1500.000000 0.000000  1200.000000  1500.000000  10000.000000 
 1500.000000  1500.000000 0.000000  1500.000000  1500.000000  10000.000000 
 1800.000000  1500.000000 0.000000  1800.000000  1500.000000  10000.000000 
 2100.000000  1500.000000 0.000000  2100.000000  1500.000000  10000.000000 
 2400.000000  1500.000000 0.000000  2400.000000  1500.000000  10000.000000 
 2700.000000  1500.000000 0.000000  2700.000000  1500.000000  10000.000000 
 3000.000000  1500.000000 0.000000  3000.000000  1500.000000  10000.000000 
 3300.000000  1500.000000 0.000000  3300.000000  1500.000000  10000.000000 
 3600.000000  1500.000000 0.000000  3600.000000  1500.000000  10000.000000 
 3900.000000  1500.000000 0.000000  3900.000000  1500.000000  10000.000000 
 4200.000000  1500.000000 0.000000  4200.000000  1500.000000  10000.000000 
 4500.000000  1500.000000 0.000000  4500.000000  1500.000000  10000.000000 
 4800.000000  1500.000000 0.000000  4800.000000  1500.000000  10000.000000 
 5100.000000  1500.000000 0.000000  5100.000000  1500.000000  10000.000000 
 5400.000000  1500.000000 0.000000  5400.000000  1500.000000  10000.000000 
 5700.000000  1500.000000 0.000000  5700.000000  1500.000000  10000.000000 
 6000.000000  1500.000000 0.000000  6000.000000  1500.000000  10000.000000 
 6300.000000  1500.000000 0.000000  6300.000000  1500.000000  10000.000000 
 6600.000000  1500.000000 0.000000  6600.000000  1500.000000  10000.000000 
 6900.000000  1500.000000 0.000000  6900.000000  1500.000000  10000.000000 
 7200.000000  1500.000000 0.000000  7200.000000  1500.000000  10000.000000 
 7500.000000  1500.000000 0.000000  7500.000000  1500.000000  10000.000000 
 7800.000000  1500.000000 0.000000  7800.000000  1500.000000  10000.000000 
 8100.000000  1500.000000 0.000000  8100.000000  1500.000000  10000.000000 
 0.000000  1800.000000 0.000000  0.000000  1800.000000  10000.000000 
 300.000000  1800.000000 0.000000  300.000000  1800.000000  10000.000000 
 600.000000  1800.000000 0.000000  600.000000  1800.000000  10000.000000 
 900.000000  1800.000000 0.000000  900.000000  1800.000000  10000.000000 
 1200.000000  1800.000000 0.000000  1200.000000  1800.000000  10000.000000 
 1500.000000  1800.000000 0.000000  1500.000000  1800.000000  10000.000000 
 1800.000000  1800.000000 0.000000  1800.000000  1800.000000  10000.000000 
 2100.000000  1800.000000 0.000000  2100.000000  1800.000000  10000.000000 
 2400.000000  1800.000000 0.000000  2400.000000  1800.000000  10000.000000 
 2700.000000  1800.000000 0.000000  2700.000000  1800.000000  10000.000000 
 3000.000000  1800.000000 0.000000  3000.000000  1800.000000  10000.000000 
 3300.000000  1800.000000 0.000000  3300.000000  1800.000000  10000.000000 
 3600.000000  1800.000000 0.000000  3600.000000  1800.000000  10000.000000 
 3900.000000  1800.000000 0.000000  3900.000000  1800.000000  10000.000000 
 4200.000000  1800.000000 0.000000  4200.000000  1800.000000  10000.000000 
 4500.000000  1800.000000 0.000000  4500.000000  1800.000000  10000.000000 
 4800.000000  1800.000000 0.000000  4800.000000  1800.000000  10000.000000 
 5100.000000  1800.000000 0.000000  5100.000000  1800.000000  10000.000000 
 5400.000000  1800.000000 0.000000  5400.000000  1800.000000  10000.000000 
 5700.000000  1800.000000 0.000000  5700.000000  1800.000000  10000.000000 
 6000.000000  1800.000000 0.000000  6000.000000  1800.000000  10000.000000 
 6300.000000  1800.000000 0.000000  6300.000000  1800.000000  10000.000000 
 6600.000000  1800.000000 0.000000  6600.000000  1800.000000  10000.000000 
 6900.000000  1800.000000 0.000000  6900.000000  1800.000000  10000.000000 
 7200.000000  1800.000000 0.000000  7200.000000  1800.000000  10000.000000 
 7500.000000  1800.000000 0.000000  7500.000000  1800.000000  10000.000000 
 7800.000000  1800.000000 0.000000  7800.000000  1800.000000  10000.000000 
 8100.000000  1800.000000 0.000000  8100.000000  1800.000000  10000.000000 
 0.000000  2100.000000 0.000000  0.000000  2100.000000  10000.000000 
 300.000000  2100.000000 0.000000  300.000000  2100.000000  10000.000000 
 600.000000  2100.000000 0.000000  600.000000  2100.000000  10000.000000 
 900.000000  2100.000000 0.000000  900.000000  2100.000000  10000.000000 
 1200.000000  2100.000000 0.000000  1200.000000  2100.000000  10000.000000 
 1500.000000  2100.000000 0.000000  1500.000000  2100.000000  10000.000000 
 1800.000000  2100.000000 0.000000  1800.000000  2100.000000  10000.000000 
 2100.000000  2100.000000 0.000000  2100.000000  2100.000000  10000.000000 
 2400.000000  2100.000000 0.000000  2400.000000  2100.000000  10000.000000 
 2700.000000  2100.000000 0.000000  2700.000000  2100.000000  10000.000000 
 3000.000000  2100.000000 0.000000  3000.000000  2100.000000  10000.000000 
 3300.000000  2100.000000 0.000000  3300.000000  2100.000000  10000.000000 
 3600.000000  2100.000000 0.000000  3600.000000  2100.000000  10000.000000 
 3900.000000  2100.000000 0.000000  3900.000000  2100.000000  10000.000000 
 4200.000000  2100.000000 0.000000  4200.000000  2100.000000  10000.000000 
 4500.000000  2100.000000 0.000000  4500.000000  2100.000000  10000.000000 
 4800.000000  2100.000000 0.000000  4800.000000  2100.000000  10000.000000 
 5100.000000  2100.000000 0.000000  5100.000000  2100.000000  10000.000000 
 5400.000000  2100.000000 0.000000  5400.000000  2100.000000  10000.000000 
 5700.000000  2100.000000 0.000000  5700.000000  2100.000000  10000.000000 
 6000.000000  2100.000000 0.000000  6000.000000  2100.000000  10000.000000 
 6300.000000  2100.000000 0.000000  6300.000000  2100.000000  10000.000000 
 6600.000000  2100.000000 0.000000  6600.000000  2100.000000  10000.000000 
 6900.000000  2100.000000 0.000000  6900.000000  2100.000000  10000.000000 
 7200.000000  2100.000000 0.000000  7200.000000  2100.000000  10000.000000 
 7500.000000  2100.000000 0.000000  7500.000000  2100.000000  10000.000000 
 7800.000000  2100.000000 0.000000  7800.000000  2100.000000  10000.000000 
 8100.000000  2100.000000 0.000000  8100.000000  2100.000000  10000.000000 
 0.000000  2400.000000 0.000000  0.000000  2400.000000  10000.000000 
 300.000000  2400.000000 0.000000  300.000000  2400.000000  10000.000000 
 600.000000  2400.000000 0.000000  600.000000  2400.000000  10000.000000 
 900.000000  2400.000000 0.000000  900.000000  2400.000000  10000.000000 
 1200.000000  2400.000000 0.000000  1200.000000  2400.000000  10000.000000 
 1500.000000  2400.000000 0.000000  1500.000000  2400.000000  10000.000000 
 1800.000000  2400.000000 0.000000  1800.000000  2400.000000  10000.000000 
 2100.000000  2400.000000 0.000000  2100.000000  2400.000000  10000.000000 
 2400.000000  2400.000000 0.000000  2400.000000  2400.000000  10000.000000 
 2700.000000  2400.000000 0.000000  2700.000000  2400.000000  10000.000000 
 3000.000000  2400.000000 0.000000  3000.000000  2400.000000  10000.000000 
 3300.000000  2400.000000 0.000000  3300.000000  2400.000000  10000.000000 
 3600.000000  2400.000000 0.000000  3600.000000  2400.000000  10000.000000 
 3900.000000  2400.000000 0.000000  3900.000000  2400.000000  10000.000000 
 4200.000000  2400.000000 0.000000  4200.000000  2400.000000  10000.000000 
 4500.000000  2400.000000 0.000000  4500.000000  2400.000000  10000.000000 
 4800.000000  2400.000000 0.000000  4800.000000  2400.000000  10000.000000 
 5100.000000  2400.000000 0.000000  5100.000000  2400.000000  10000.000000 
 5400.000000  2400.000000 0.000000  5400.000000  2400.000000  10000.000000 
 5700.000000  2400.000000 0.000000  5700.000000  2400.000000  10000.000000 
 6000.000000  2400.000000 0.000000  6000.000000  2400.000000  10000.000000 
 6300.000000  2400.000000 0.000000  6300.000000  2400.000000  10000.000000 
 6600.000000  2400.000000 0.000000  6600.000000  2400.000000  10000.000000 
 6900.000000  2400.000000 0.000000  6900.000000  2400.000000  10000.000000 
 7200.000000  2400.000000 0.000000  7200.000000  2400.000000  10000.000000 
 7500.000000  2400.000000 0.000000  7500.000000  2400.000000  10000.000000 
 7800.000000  2400.000000 0.000000  7800.000000  2400.000000  10000.000000 
 8100.000000  2400.000000 0.000000  8100.000000  2400.000000  10000.000000 
 0.000000  2700.000000 0.000000  0.000000  2700.000000  10000.000000 
 300.000000  2700.000000 0.000000  300.000000  2700.000000  10000.000000 
 600.000000  2700.000000 0.000000  600.000000  2700.000000  10000.000000 
 900.000000  2700.000000 0.000000  900.000000  2700.000000  10000.000000 
 1200.000000  2700.000000 0.000000  1200.000000  2700.000000  10000.000000 
 1500.000000  2700.000000 0.000000  1500.000000  2700.000000  10000.000000 
 1800.000000  2700.000000 0.000000  1800.000000  2700.000000  10000.000000 
 2100.000000  2700.000000 0.000000  2100.000000  2700.000000  10000.000000 
 2400.000000  2700.000000 0.000000  2400.000000  2700.000000  10000.000000 
 2700.000000  2700.000000 0.000000  2700.000000  2700.000000  10000.000000 
 3000.000000  2700.000000 0.000000  3000.000000  2700.000000  10000.000000 
 3300.000000  2700.000000 0.000000  3300.000000  2700.000000  10000.000000 
 3600.000000  2700.000000 0.000000  3600.000000  2700.000000  10000.000000 
 3900.000000  2700.000000 0.000000  3900.000000  2700.000000  10000.000000 
 4200.000000  2700.000000 0.000000  4200.000000  2700.000000  10000.000000 
 4500.000000  2700.000000 0.000000  4500.000000  2700.000000  10000.000000 
 4800.000000  2700.000000 0.000000  4800.000000  2700.000000  10000.000000 
 5100.000000  2700.000000 0.000000  5100.000000  2700.000000  10000.000000 
 5400.000000  2700.000000 0.000000  5400.000000  2700.000000  10000.000000 
 5700.000000  2700.000000 0.000000  5700.000000  2700.000000  10000.000000 
 6000.000000  2700.000000 0.000000  6000.000000  2700.000000  10000.000000 
 6300.000000  2700.000000 0.000000  6300.000000  2700.000000  10000.000000 
 6600.000000  2700.000000 0.000000  6600.000000  2700.000000  10000.000000 
 6900.000000  2700.000000 0.000000  6900.000000  2700.000000  10000.000000 
 7200.000000  2700.000000 0.000000  7200.000000  2700.000000  10000.000000 
 7500.000000  2700.000000 0.000000  7500.000000  2700.000000  10000.000000 
 7800.000000  2700.000000 0.000000  7800.000000  2700.000000  10000.000000 
 8100.000000  2700.000000 0.000000  8100.000000  2700.000000  10000.000000 
 0.000000  3000.000000 0.000000  0.000000  3000.000000  10000.000000 
 300.000000  3000.000000 0.000000  300.000000  3000.000000  10000.000000 
 600.000000  3000.000000 0.000000  600.000000  3000.000000  10000.000000 
 900.000000  3000.000000 0.000000  900.000000  3000.000000  10000.000000 
 1200.000000  3000.000000 0.000000  1200.000000  3000.000000  10000.000000 
 1500.000000  3000.000000 0.000000  1500.000000  3000.000000  10000.000000 
 1800.000000  3000.000000 0.000000  1800.000000  3000.000000  10000.000000 
 2100.000000  3000.000000 0.000000  2100.000000  3000.000000  10000.000000 
 2400.000000  3000.000000 0.000000  2400.000000  3000.000000  10000.000000 
 2700.000000  3000.000000 0.000000  2700.000000  3000.000000  10000.000000 
 3000.000000  3000.000000 0.000000  3000.000000  3000.000000  10000.000000 
 3300.000000  3000.000000 0.000000  3300.000000  3000.000000  10000.000000 
 3600.000000  3000.000000 0.000000  3600.000000  3000.000000  10000.000000 
 3900.000000  3000.000000 0.000000  3900.000000  3000.000000  10000.000000 
 4200.000000  3000.000000 0.000000  4200.000000  3000.000000  10000.000000 
 4500.000000  3000.000000 0.000000  4500.000000  3000.000000  10000.000000 
 4800.000000  3000.000000 0.000000  4800.000000  3000.000000  10000.000000 
 5100.000000  3000.000000 0.000000  5100.000000  3000.000000  10000.000000 
 5400.000000  3000.000000 0.000000  5400.000000  3000.000000  10000.000000 
 5700.000000  3000.000000 0.000000  5700.000000  3000.000000  10000.000000 
 6000.000000  3000.000000 0.000000  6000.000000  3000.000000  10000.000000 
 6300.000000  3000.000000 0.000000  6300.000000  3000.000000  10000.000000 
 6600.000000  3000.000000 0.000000  6600.000000  3000.000000  10000.000000 
 6900.000000  3000.000000 0.000000  6900.000000  3000.000000  10000.000000 
 7200.000000  3000.000000 0.000000  7200.000000  3000.000000  10000.000000 
 7500.000000  3000.000000 0.000000  7500.000000  3000.000000  10000.000000 
 7800.000000  3000.000000 0.000000  7800.000000  3000.000000  10000.000000 
 8100.000000  3000.000000 0.000000  8100.000000  3000.000000  10000.000000 
 0.000000  3300.000000 0.000000  0.000000  3300.000000  10000.000000 
 300.000000  3300.000000 0.000000  300.000000  3300.000000  10000.000000 
 600.000000  3300.000000 0.000000  600.000000  3300.000000  10000.000000 
 900.000000  3300.000000 0.000000  900.000000  3300.000000  10000.000000 
 1200.000000  3300.000000 0.000000  1200.000000  3300.000000  10000.000000 
 1500.000000  3300.000000 0.000000  1500.000000  3300.000000  10000.000000 
 1800.000000  3300.000000 0.000000  1800.000000  3300.000000  10000.000000 
 2100.000000  3300.000000 0.000000  2100.000000  3300.000000  10000.000000 
 2400.000000  3300.000000 0.000000  2400.000000  3300.000000  10000.000000 
 2700.000000  3300.000000 0.000000  2700.000000  3300.000000  10000.000000 
 3000.000000  3300.000000 0.000000  3000.000000  3300.000000  10000.000000 
 3300.000000  3300.000000 0.000000  3300.000000  3300.000000  10000.000000 
 3600.000000  3300.000000 0.000000  3600.000000  3300.000000  10000.000000 
 3900.000000  3300.000000 0.000000  3900.000000  3300.000000  10000.000000 
 4200.000000  3300.000000 0.000000  4200.000000  3300.000000  10000.000000 
 4500.000000  3300.000000 0.000000  4500.000000  3300.000000  10000.000000 
 4800.000000  3300.000000 0.000000  4800.000000  3300.000000  10000.000000 
 5100.000000  3300.000000 0.000000  5100.000000  3300.000000  10000.000000 
 5400.000000  3300.000000 0.000000  5400.000000  3300.000000  10000.000000 
 5700.000000  3300.000000 0.000000  5700.000000  3300.000000  10000.000000 
 6000.000000  3300.000000 0.000000  6000.000000  3300.000000  10000.000000 
 6300.000000  3300.000000 0.000000  6300.000000  3300.000000  10000.000000 
 6600.000000  3300.000000 0.000000  6600.000000  3300.000000  10000.000000 
 6900.000000  3300.000000 0.000000  6900.000000  3300.000000  10000.000000 
 7200.000000  3300.000000 0.000000  7200.000000  3300.000000  10000.000000 
 7500.000000  3300.000000 0.000000  7500.000000  3300.000000  10000.000000 
 7800.000000  3300.000000 0.000000  7800.000000  3300.000000  10000.000000 
 8100.000000  3300.000000 0.000000  8100.000000  3300.000000  10000.000000 
 0.000000  3600.000000 0.000000  0.000000  3600.000000  10000.000000 
 300.000000  3600.000000 0.000000  300.000000  3600.000000  10000.000000 
 600.000000  3600.000000 0.000000  600.000000  3600.000000  10000.000000 
 900.000000  3600.000000 0.000000  900.000000  3600.000000  10000.000000 
 1200.000000  3600.000000 0.000000  1200.000000  3600.000000  10000.000000 
 1500.000000  3600.000000 0.000000  1500.000000  3600.000000  10000.000000 
 1800.000000  3600.000000 0.000000  1800.000000  3600.000000  10000.000000 
 2100.000000  3600.000000 0.000000  2100.000000  3600.000000  10000.000000 
 2400.000000  3600.000000 0.000000  2400.000000  3600.000000  10000.000000 
 2700.000000  3600.000000 0.000000  2700.000000  3600.000000  10000.000000 
 3000.000000  3600.000000 0.000000  3000.000000  3600.000000  10000.000000 
 3300.000000  3600.000000 0.000000  3300.000000  3600.000000  10000.000000 
 3600.000000  3600.000000 0.000000  3600.000000  3600.000000  10000.000000 
 3900.000000  3600.000000 0.000000  3900.000000  3600.000000  10000.000000 
 4200.000000  3600.000000 0.000000  4200.000000  3600.000000  10000.000000 
 4500.000000  3600.000000 0.000000  4500.000000  3600.000000  10000.000000 
 4800.000000  3600.000000 0.000000  4800.000000  3600.000000  10000.000000 
 5100.000000  3600.000000 0.000000  5100.000000  3600.000000  10000.000000 
 5400.000000  3600.000000 0.000000  5400.000000  3600.000000  10000.000000 
 5700.000000  3600.000000 0.000000  5700.000000  3600.000000  10000.000000 
 6000.000000  3600.000000 0.000000  6000.000000  3600.000000  10000.000000 
 6300.000000  3600.000000 0.000000  6300.000000  3600.000000  10000.000000 
 6600.000000  3600.000000 0.000000  6600.000000  3600.000000  10000.000000 
 6900.000000  3600.000000 0.000000  6900.000000  3600.000000  10000.000000 
 7200.000000  3600.000000 0.000000  7200.000000  3600.000000  10000.000000 
 7500.000000  3600.000000 0.000000  7500.000000  3600.000000  10000.000000 
 7800.000000  3600.000000 0.000000  7800.000000  3600.000000  10000.000000 
 8100.000000  3600.000000 0.000000  8100.000000  3600.000000  10000.000000 
 0.000000  3900.000000 0.000000  0.000000  3900.000000  10000.000000 
 300.000000  3900.000000 0.000000  300.000000  3900.000000  10000.000000 
 600.000000  3900.000000 0.000000  600.000000  3900.000000  10000.000000 
 900.000000  3900.000000 0.000000  900.000000  3900.000000  10000.000000 
 1200.000000  3900.000000 0.000000  1200.000000  3900.000000  10000.000000 
 1500.000000  3900.000000 0.000000  1500.000000  3900.000000  10000.000000 
 1800.000000  3900.000000 0.000000  1800.000000  3900.000000  10000.000000 
 2100.000000  3900.000000 0.000000  2100.000000  3900.000000  10000.000000 
 2400.000000  3900.000000 0.000000  2400.000000  3900.000000  10000.000000 
 2700.000000  3900.000000 0.000000  2700.000000  3900.000000  10000.000000 
 3000.000000  3900.000000 0.000000  3000.000000  3900.000000  10000.000000 
 3300.000000  3900.000000 0.000000  3300.000000  3900.000000  10000.000000 
 3600.000000  3900.000000 0.000000  3600.000000  3900.000000  10000.000000 
 3900.000000  3900.000000 0.000000  3900.000000  3900.000000  10000.000000 
 4200.000000  3900.000000 0.000000  4200.000000  3900.000000  10000.000000 
 4500.000000  3900.000000 0.000000  4500.000000  3900.000000  10000.000000 
 4800.000000  3900.000000 0.000000  4800.000000  3900.000000  10000.000000 
 5100.000000  3900.000000 0.000000  5100.000000  3900.000000  10000.000000 
 5400.000000  3900.000000 0.000000  5400.000000  3900.000000  10000.000000 
 5700.000000  3900.000000 0.000000  5700.000000  3900.000000  10000.000000 
 6000.000000  3900.000000 0.000000  6000.000000  3900.000000  10000.000000 
 6300.000000  3900.000000 0.000000  6300.000000  3900.000000  10000.000000 
 6600.000000  3900.000000 0.000000  6600.000000  3900.000000  10000.000000 
 6900.000000  3900.000000 0.000000  6900.000000  3900.000000  10000.000000 
 7200.000000  3900.000000 0.000000  7200.000000  3900.000000  10000.000000 
 7500.000000  3900.000000 0.000000  7500.000000  3900.000000  10000.000000 
 7800.000000  3900.000000 0.000000  7800.000000  3900.000000  10000.000000 
 8100.000000  3900.000000 0.000000  8100.000000  3900.000000  10000.000000 
 0.000000  4200.000000 0.000000  0.000000  4200.000000  10000.000000 
 300.000000  4200.000000 0.000000  300.000000  4200.000000  10000.000000 
 600.000000  4200.000000 0.000000  600.000000  4200.000000  10000.000000 
 900.000000  4200.000000 0.000000  900.000000  4200.000000  10000.000000 
 1200.000000  4200.000000 0.000000  1200.000000  4200.000000  10000.000000 