-- Final grid: 4x4x4 cubes (1x1x1 m each) with sediment proportions
GRIDUNIT
 METRES /

SPECGRID
 4 4 4 1 F /

COORD
 0.0 0.0 0.0   0.0 0.0 4.0
 1.0 0.0 0.0   1.0 0.0 4.0
 2.0 0.0 0.0   2.0 0.0 4.0
 3.0 0.0 0.0   3.0 0.0 4.0
 4.0 0.0 0.0   4.0 0.0 4.0
 0.0 1.0 0.0   0.0 1.0 4.0
 1.0 1.0 0.0   1.0 1.0 4.0
 2.0 1.0 0.0   2.0 1.0 4.0
 3.0 1.0 0.0   3.0 1.0 4.0
 4.0 1.0 0.0   4.0 1.0 4.0
 0.0 2.0 0.0   0.0 2.0 4.0
 1.0 2.0 0.0   1.0 2.0 4.0
 2.0 2.0 0.0   2.0 2.0 4.0
 3.0 2.0 0.0   3.0 2.0 4.0
 4.0 2.0 0.0   4.0 2.0 4.0
 0.0 3.0 0.0   0.0 3.0 4.0
 1.0 3.0 0.0   1.0 3.0 4.0
 2.0 3.0 0.0   2.0 3.0 4.0
 3.0 3.0 0.0   3.0 3.0 4.0
 4.0 3.0 0.0   4.0 3.0 4.0
 0.0 4.0 0.0   0.0 4.0 4.0
 1.0 4.0 0.0   1.0 4.0 4.0
 2.0 4.0 0.0   2.0 4.0 4.0
 3.0 4.0 0.0   3.0 4.0 4.0
 4.0 4.0 0.0   4.0 4.0 4.0
 /

ZCORN
 0.0 0.0 0.0 0.0 1.0 1.0 1.0 1.0
 0.0 0.0 0.0 0.0 1.0 1.0 1.0 1.0
 0.0 0.0 0.0 0.0 1.0 1.0 1.0 1.0
 0.0 0.0 0.0 0.0 1.0 1.0 1.0 1.0
 0.0 0.0 0.0 0.0 1.0 1.0 1.0 1.0
 0.0 0.0 0.0 0.0 1.0 1.0 1.0 1.0
 0.0 0.0 0.0 0.0 1.0 1.0 1.0 1.0
 0.0 0.0 0.0 0.0 1.0 1.0 1.0 1.0
 0.0 0.0 0.0 0.0 1.0 1.0 1.0 1.0
 0.0 0.0 0.0 0.0 1.0 1.0 1.0 1.0
 0.0 0.0 0.0 0.0 1.0 1.0 1.0 1.0
 0.0 0.0 0.0 0.0 1.0 1.0 1.0 1.0
 0.0 0.0 0.0 0.0 1.0 1.0 1.0 1.0
 0.0 0.0 0.0 0.0 1.0 1.0 1.0 1.0
 0.0 0.0 0.0 0.0 1.0 1.0 1.0 1.0
 0.0 0.0 0.0 0.0 1.0 1.0 1.0 1.0
 1.0 1.0 1.0 1.0 2.0 2.0 2.0 2.0
 1.0 1.0 1.0 1.0 2.0 2.0 2.0 2.0
 1.0 1.0 1.0 1.0 2.0 2.0 2.0 2.0
 1.0 1.0 1.0 1.0 2.0 2.0 2.0 2.0
 1.0 1.0 1.0 1.0 2.0 2.0 2.0 2.0
 1.0 1.0 1.0 1.0 2.0 2.0 2.0 2.0
 1.0 1.0 1.0 1.0 2.0 2.0 2.0 2.0
 1.0 1.0 1.0 1.0 2.0 2.0 2.0 2.0
 1.0 1.0 1.0 1.0 2.0 2.0 2.0 2.0
 1.0 1.0 1.0 1.0 2.0 2.0 2.0 2.0
 1.0 1.0 1.0 1.0 2.0 2.0 2.0 2.0
 1.0 1.0 1.0 1.0 2.0 2.0 2.0 2.0
 1.0 1.0 1.0 1.0 2.0 2.0 2.0 2.0
 1.0 1.0 1.0 1.0 2.0 2.0 2.0 2.0
 1.0 1.0 1.0 1.0 2.0 2.0 2.0 2.0
 1.0 1.0 1.0 1.0 2.0 2.0 2.0 2.0
 2.0 2.0 2.0 2.0 3.0 3.0 3.0 3.0
 2.0 2.0 2.0 2.0 3.0 3.0 3.0 3.0
 2.0 2.0 2.0 2.0 3.0 3.0 3.0 3.0
 2.0 2.0 2.0 2.0 3.0 3.0 3.0 3.0
 2.0 2.0 2.0 2.0 3.0 3.0 3.0 3.0
 2.0 2.0 2.0 2.0 3.0 3.0 3.0 3.0
 2.0 2.0 2.0 2.0 3.0 3.0 3.0 3.0
 2.0 2.0 2.0 2.0 3.0 3.0 3.0 3.0
 2.0 2.0 2.0 2.0 3.0 3.0 3.0 3.0
 2.0 2.0 2.0 2.0 3.0 3.0 3.0 3.0
 2.0 2.0 2.0 2.0 3.0 3.0 3.0 3.0
 2.0 2.0 2.0 2.0 3.0 3.0 3.0 3.0
 2.0 2.0 2.0 2.0 3.0 3.0 3.0 3.0
 2.0 2.0 2.0 2.0 3.0 3.0 3.0 3.0
 2.0 2.0 2.0 2.0 3.0 3.0 3.0 3.0
 2.0 2.0 2.0 2.0 3.0 3.0 3.0 3.0
 3.0 3.0 3.0 3.0 4.0 4.0 4.0 4.0
 3.0 3.0 3.0 3.0 4.0 4.0 4.0 4.0
 3.0 3.0 3.0 3.0 4.0 4.0 4.0 4.0
 3.0 3.0 3.0 3.0 4.0 4.0 4.0 4.0
 3.0 3.0 3.0 3.0 4.0 4.0 4.0 4.0
 3.0 3.0 3.0 3.0 4.0 4.0 4.0 4.0
 3.0 3.0 3.0 3.0 4.0 4.0 4.0 4.0
 3.0 3.0 3.0 3.0 4.0 4.0 4.0 4.0
 3.0 3.0 3.0 3.0 4.0 4.0 4.0 4.0
 3.0 3.0 3.0 3.0 4.0 4.0 4.0 4.0
 3.0 3.0 3.0 3.0 4.0 4.0 4.0 4.0
 3.0 3.0 3.0 3.0 4.0 4.0 4.0 4.0
 3.0 3.0 3.0 3.0 4.0 4.0 4.0 4.0
 3.0 3.0 3.0 3.0 4.0 4.0 4.0 4.0
 3.0 3.0 3.0 3.0 4.0 4.0 4.0 4.0
 3.0 3.0 3.0 3.0 4.0 4.0 4.0 4.0
 /

ACTNUM
 1 1 1 1 1 1 1 1 1 1 1 1 1 1 1 1 1 1 1 1 1 1 1 1 1 1 1 1 1 1 1 1 1 1 1 1 1 1 1 1 1 1 1 1 1 1 1 1 1 1 1 1 1 1 1 1 1 1 1 1 1 1 1 1
 /

SAND_FRAC
 0.700 0.700 0.700 0.700 0.700 0.700 0.700 0.700
 0.700 0.700 0.700 0.700 0.700 0.700 0.700 0.700
 0.700 0.700 0.700 0.700 0.700 0.700 0.700 0.700
 0.700 0.700 0.700 0.700 0.700 0.700 0.700 0.700
 0.450 0.450 0.450 0.450 0.450 0.450 0.450 0.450
 0.450 0.450 0.450 0.450 0.450 0.450 0.450 0.450
 0.250 0.250 0.250 0.250 0.250 0.250 0.250 0.250
 0.250 0.250 0.250 0.250 0.250 0.250 0.250 0.250
 /


SILT_FRAC
 0.200 0.200 0.200 0.200 0.200 0.200 0.200 0.200
 0.200 0.200 0.200 0.200 0.200 0.200 0.200 0.200
 0.200 0.200 0.200 0.200 0.200 0.200 0.200 0.200
 0.200 0.200 0.200 0.200 0.200 0.200 0.200 0.200
 0.350 0.350 0.350 0.350 0.350 0.350 0.350 0.350
 0.350 0.350 0.350 0.350 0.350 0.350 0.350 0.350
 0.350 0.350 0.350 0.350 0.350 0.350 0.350 0.350
 0.350 0.350 0.350 0.350 0.350 0.350 0.350 0.350
 /


CLAY_FRAC
 0.100 0.100 0.100 0.100 0.100 0.100 0.100 0.100
 0.100 0.100 0.100 0.100 0.100 0.100 0.100 0.100
 0.100 0.100 0.100 0.100 0.100 0.100 0.100 0.100
 0.100 0.100 0.100 0.100 0.100 0.100 0.100 0.100
 0.200 0.200 0.200 0.200 0.200 0.200 0.200 0.200
 0.200 0.200 0.200 0.200 0.200 0.200 0.200 0.200
 0.400 0.400 0.400 0.400 0.400 0.400 0.400 0.400
 0.400 0.400 0.400 0.400 0.400 0.400 0.400 0.400
 /
